LAMMPS (16 Mar 2018)
units lj
atom_style atomic
Total wall time: 0:00:00
